<VTKFile type="UnstructuredGrid" version="0.1" byte_order="BigEndian">
  <UnstructuredGrid>
    <Piece NumberOfPoints="4" NumberOfCells="0">
<Points>
        <DataArray name="Position" type="Float32" NumberOfComponents="3" format="ascii">
84.6978 22.14 0 85.7419 22.14 0 93.3594 22.14 0 94.4008 22.14 0 
        </DataArray>
      </Points>
<PointData Vectors="vector">
        <DataArray type="Float32" Name="Velocity" NumberOfComponents="3" format="ascii">
-3.4588 -4 -0 5.39516 -4 -0 -5.37939 -4 -0 3.44303 -4 -0         </DataArray>
        <DataArray type="Float32" Name="Masse" format="ascii">
1 1 1 1 
        </DataArray>
      </PointData>
      <Cells>
        <DataArray type="Int32" Name="connectivity" format="ascii">
        </DataArray>
        <DataArray type="Int32" Name="offsets" format="ascii">
        </DataArray>
        <DataArray type="UInt8" Name="types" format="ascii">
        </DataArray>
      </Cells>
    </Piece>
  </UnstructuredGrid>
</VTKFile>
