<VTKFile type="UnstructuredGrid" version="0.1" byte_order="BigEndian">
  <UnstructuredGrid>
    <Piece NumberOfPoints="4" NumberOfCells="0">
<Points>
        <DataArray name="Position" type="Float32" NumberOfComponents="3" format="ascii">
75.865 12.2 0 78.0519 12.2 0 95.7883 12.2 0 97.9941 12.2 0 
        </DataArray>
      </Points>
<PointData Vectors="vector">
        <DataArray type="Float32" Name="Velocity" NumberOfComponents="3" format="ascii">
-6.36489 -4 -0 -3.46723 -4 -0 -6.52558 -4 -0 -3.62244 -4 -0         </DataArray>
        <DataArray type="Float32" Name="Masse" format="ascii">
1 1 1 1 
        </DataArray>
      </PointData>
      <Cells>
        <DataArray type="Int32" Name="connectivity" format="ascii">
        </DataArray>
        <DataArray type="Int32" Name="offsets" format="ascii">
        </DataArray>
        <DataArray type="UInt8" Name="types" format="ascii">
        </DataArray>
      </Cells>
    </Piece>
  </UnstructuredGrid>
</VTKFile>
