<VTKFile type="UnstructuredGrid" version="0.1" byte_order="BigEndian">
  <UnstructuredGrid>
    <Piece NumberOfPoints="4" NumberOfCells="0">
<Points>
        <DataArray name="Position" type="Float32" NumberOfComponents="3" format="ascii">
57.3292 0.44 0 67.6813 0.44 0 76.7705 0.44 0 87.1767 0.44 0 
        </DataArray>
      </Points>
<PointData Vectors="vector">
        <DataArray type="Float32" Name="Velocity" NumberOfComponents="3" format="ascii">
-6.30155 -4 -0 -3.53057 -4 -0 -6.46566 -4 -0 -3.68236 -4 -0         </DataArray>
        <DataArray type="Float32" Name="Masse" format="ascii">
1 1 1 1 
        </DataArray>
      </PointData>
      <Cells>
        <DataArray type="Int32" Name="connectivity" format="ascii">
        </DataArray>
        <DataArray type="Int32" Name="offsets" format="ascii">
        </DataArray>
        <DataArray type="UInt8" Name="types" format="ascii">
        </DataArray>
      </Cells>
    </Piece>
  </UnstructuredGrid>
</VTKFile>
