<VTKFile type="UnstructuredGrid" version="0.1" byte_order="BigEndian">
  <UnstructuredGrid>
    <Piece NumberOfPoints="4" NumberOfCells="0">
<Points>
        <DataArray name="Position" type="Float32" NumberOfComponents="3" format="ascii">
40.1212 11.74 0 50.1237 11.74 0 60.1261 11.74 0 70.1285 11.74 0 
        </DataArray>
      </Points>
<PointData Vectors="vector">
        <DataArray type="Float32" Name="Velocity" NumberOfComponents="3" format="ascii">
-5.00002 4 0 -5.00001 4 0 -5.00001 4 0 -5.00002 4 0         </DataArray>
        <DataArray type="Float32" Name="Masse" format="ascii">
1 1 1 1 
        </DataArray>
      </PointData>
      <Cells>
        <DataArray type="Int32" Name="connectivity" format="ascii">
        </DataArray>
        <DataArray type="Int32" Name="offsets" format="ascii">
        </DataArray>
        <DataArray type="UInt8" Name="types" format="ascii">
        </DataArray>
      </Cells>
    </Piece>
  </UnstructuredGrid>
</VTKFile>
